62
	Energy:     131.1650819
C        -10.72882        3.29182       -0.00426
C         -9.43569        4.09901        0.07722
H        -10.81668        2.77294       -0.96133
H        -11.59864        3.95083        0.10065
H        -10.77970        2.54549        0.79868
C         -8.18056        3.21438       -0.03179
H         -9.42581        4.65359        1.01709
H         -9.43883        4.84061       -0.73721
C         -6.86756        4.03230        0.02337
H         -8.22416        2.63966       -0.95733
H         -8.19297        2.48968        0.80047
C         -5.58756        3.15046       -0.02991
H         -6.86347        4.63838        0.92876
H         -6.86285        4.72902       -0.83352
C         -4.24420        3.95748        0.00189
H         -5.62550        2.53212       -0.92652
H         -5.61525        2.46662        0.83645
C         -2.93596        3.07033       -0.01642
H         -4.24612        4.59225        0.88869
H         -4.23904        4.62542       -0.87588
C         -1.53418        3.84286       -0.00246
H         -2.98258        2.43020       -0.89964
H         -2.98293        2.41185        0.86509
C         -0.18626        2.93151       -0.00392
H         -1.52856        4.49024        0.87870
H         -1.52223        4.49540       -0.88768
C          1.30628        3.65540       -0.00075
H         -0.25184        2.28557       -0.88476
H         -0.25416        2.28828        0.88347
C          2.72682        2.71801       -0.00454
H          1.33061        4.29887        0.88541
H          1.32977        4.30290       -0.88618
C          4.31950        3.41539       -0.00131
H          2.65490        2.08166       -0.89368
H          2.65457        2.07590        0.88132
C          5.81879        2.48205       -0.00934
H          4.35609        4.04888        0.89190
H          4.35400        4.06025       -0.88677
C          7.45089        3.18675        0.00141
H          5.76773        1.85582       -0.90746
H          5.76445        1.83287        0.87205
C          8.96828        2.26354        0.00107
H          7.49210        3.81893        0.89561
H          7.49899        3.83007       -0.88455
C         10.57379        2.97739        0.00789
H          8.93574        1.62475       -0.88867
H          8.93241        1.62464        0.89101
C         12.03507        2.07549       -0.01975
H         10.63809        3.59538        0.91045
H         10.62871        3.63541       -0.86659
C         13.52280        2.83105        0.02029
H         12.03812        1.46826       -0.93332
H         12.02689        1.38961        0.83593
C         14.85767        1.93443       -0.00031
H         13.58177        3.44015        0.92978
H         13.59684        3.50823       -0.83844
C         16.24906        2.65120        0.00158
H         14.86077        1.29239       -0.88893
H         14.87034        1.27298        0.87431
H         16.42390        3.26105       -0.89265
H         17.06595        1.90608        0.01122
H         16.41574        3.27760        0.88557
