152
	Energy:     422.8885752
C         -9.25195        3.29599       -0.00856
C         -7.93461        4.06894        0.05543
H         -9.34724        2.73856       -0.94308
H        -10.10263        3.98603        0.05495
H         -9.33928        2.58946        0.82592
C         -6.69487        3.15440       -0.02451
H         -7.91637        4.64873        0.98007
H         -7.91828        4.78705       -0.77821
C         -5.35929        3.94237        0.03262
H         -6.74213        2.56859       -0.94306
H         -6.73278        2.44344        0.81676
C         -4.09312        3.03678       -0.02499
H         -5.34124        4.54244        0.94227
H         -5.33827        4.64285       -0.81877
C         -2.73644        3.81783        0.01511
H         -4.13701        2.42899       -0.92873
H         -4.13092        2.34603        0.83341
C         -1.45105        2.91142       -0.01785
H         -2.71809        4.43872        0.91172
H         -2.71271        4.49781       -0.85152
C         -0.06727        3.67707        0.00517
H         -1.49591        2.28428       -0.91045
H         -1.49368        2.23978        0.85320
C          1.23485        2.76441       -0.01104
H         -0.04334        4.31210        0.89435
H         -0.03900        4.34207       -0.87021
C          2.64840        3.51213        0.00139
H          1.18654        2.12679       -0.89859
H          1.18631        2.10460        0.86610
C          3.96752        2.59121       -0.00752
H          2.67937        4.15282        0.88849
H          2.68177        4.16975       -0.87708
C          5.41169        3.32185        0.00147
H          3.91533        1.95139       -0.89494
H          3.91362        1.93596        0.87088
C          6.74904        2.39185       -0.00698
H          5.44923        3.96161        0.89017
H          5.45043        3.97793       -0.87659
C          8.22401        3.10707        0.00332
H          6.69330        1.75515       -0.89713
H          6.69059        1.73648        0.87011
C          9.58064        2.16748       -0.00856
H          8.26732        3.74199        0.89564
H          8.26816        3.76494       -0.87257
C         11.08593        2.86929        0.00506
H          9.52175        1.53660       -0.90283
H          9.51849        1.50972        0.86610
C         12.46272        1.92048       -0.01179
H         11.13415        3.49768        0.90182
H         11.13507        3.53015       -0.86806
C         13.99651        2.61202        0.00479
H         12.40117        1.29581       -0.91022
H         12.39825        1.26004        0.86054
C         15.39453        1.65649       -0.01752
H         14.04858        3.23398        0.90577
H         14.04903        3.27566       -0.86589
C         16.95315        2.34291        0.00143
H         15.33167        1.03756       -0.91978
H         15.32976        0.99347        0.85280
C         18.37381        1.38587       -0.02937
H         17.00773        2.95724        0.90740
H         17.00579        3.01078       -0.86587
C         19.95193        2.07401       -0.00643
H         18.31188        0.77486       -0.93704
H         18.31149        0.71742        0.83699
C         21.39657        1.12254       -0.05115
H         20.00696        2.67678        0.90720
H         20.00092        2.75050       -0.86711
C         22.98813        1.81947       -0.02383
H         21.33703        0.52251       -0.96626
H         21.34080        0.44487        0.80854
C         24.45708        0.88023       -0.08513
H         23.04167        2.40899        0.89849
H         23.02999        2.50679       -0.87612
C         26.05653        1.59140       -0.05865
H         24.39959        0.28968       -1.00652
H         24.41265        0.19418        0.76860
C         27.54819        0.66809       -0.13324
H         26.10816        2.17277        0.86895
H         26.08838        2.28539       -0.90586
C         29.15134        1.39563       -0.11777
H         27.49109        0.07939       -1.05581
H         27.51862       -0.01952        0.71990
C         30.66174        0.48751       -0.19733
H         29.20230        1.97986        0.80810
H         29.17179        2.08663       -0.96775
C         32.26602        1.22924       -0.20393
H         30.60314       -0.11036       -1.11384
H         30.64771       -0.19141        0.66312
C         33.78891        0.33160       -0.27920
H         32.31869        1.82840        0.71228
H         32.27568        1.90635       -1.06529
C         35.39299        1.08135       -0.31378
H         33.72768       -0.28403       -1.18366
H         33.78767       -0.33019        0.59454
C         36.92022        0.18719       -0.38055
H         35.45056        1.70111        0.58834
H         35.39433        1.73893       -1.19031
C         38.52296        0.93703       -0.43994
H         36.85577       -0.44664       -1.27206
H         36.92679       -0.45660        0.50642
C         40.04492        0.03923       -0.50086
H         38.58844        1.57368        0.44980
H         38.51988        1.57830       -1.32859
C         41.64349        0.78277       -0.57493
H         39.97685       -0.60568       -1.38410
H         40.05431       -0.59371        0.39378
C         43.14971       -0.12347       -0.63639
H         41.71866        1.42684        0.30869
H         41.64043        1.41714       -1.46859
C         44.73739        0.61133       -0.71386
H         43.07811       -0.76998       -1.51822
H         43.15876       -0.75598        0.25850
C         46.21693       -0.30368       -0.77975
H         44.82172        1.25467        0.16946
H         44.73829        1.24764       -1.60618
C         47.78176        0.42423       -0.85477
H         46.14279       -0.94738       -1.66353
H         46.22540       -0.94183        0.11115
C         49.22336       -0.49545       -0.92360
H         47.87321        1.06545        0.02938
H         47.78840        1.06525       -1.74372
C         50.75034        0.23038       -0.99505
H         49.14918       -1.13797       -1.80839
H         49.23288       -1.13961       -0.03693
C         52.14437       -0.68923       -1.06470
H         50.84723        0.87111       -0.11105
H         50.76213        0.87612       -1.88060
C         53.62327        0.03989       -1.13241
H         52.07270       -1.33234       -1.94945
H         52.15685       -1.33888       -0.18189
C         54.96489       -0.88094       -1.20154
H         53.72476        0.68096       -0.24904
H         53.63969        0.68976       -2.01501
C         56.39658       -0.14736       -1.26730
H         54.89483       -1.52578       -2.08539
H         54.98004       -1.53428       -0.32128
C         57.68230       -1.08083       -1.33240
H         56.50421        0.49581       -0.38601
H         56.41964        0.50278       -2.14974
C         59.07724       -0.35162       -1.40074
H         57.60726       -1.73033       -2.21269
H         57.69449       -1.73278       -0.45078
C         60.29869       -1.31588       -1.45645
H         59.19710        0.29681       -0.52470
H         59.11272        0.29220       -2.28764
C         61.66500       -0.61687       -1.52999
H         60.21559       -1.97240       -2.33047
H         60.30442       -1.96068       -0.56980
H         61.76065       -0.00058       -2.42998
H         62.47433       -1.36014       -1.56261
H         61.84772        0.01667       -0.65586
