122
	Energy:     451.0231996
C        -10.23932        3.29883       -0.00390
C         -8.92924        4.08869        0.06345
H        -10.33665        2.76251       -0.95379
H        -11.09951        3.97561        0.07903
H        -10.31497        2.57235        0.81135
C         -7.66825        3.19723       -0.02324
H         -8.92104        4.65415        1.00320
H         -8.92926        4.81978       -0.75269
C         -6.33287        4.00053        0.02289
H         -7.71478        2.61938       -0.95485
H         -7.69411        2.47859        0.80376
C         -5.04089        3.11385       -0.02144
H         -6.32639        4.60264        0.94010
H         -6.32430        4.69931       -0.82140
C         -3.67170        3.90065        0.00247
H         -5.08294        2.50089       -0.93026
H         -5.07343        2.42785        0.83251
C         -2.35737        3.00498       -0.01263
H         -3.66143        4.53022        0.90062
H         -3.65503        4.57198       -0.86372
C         -0.94678        3.76601       -0.00319
H         -2.40244        2.36925       -0.90506
H         -2.40059        2.34288        0.85969
C          0.38977        2.85683       -0.00625
H         -0.92592        4.40881        0.88491
H         -0.92138        4.42191       -0.88105
C          1.84237        3.59517       -0.00249
H          0.33951        2.21303       -0.89219
H          0.33856        2.20610        0.87430
C          3.20541        2.67552       -0.00512
H          1.87328        4.23946        0.88391
H          1.87445        4.24605       -0.88388
C          4.69620        3.40043       -0.00003
H          3.15295        2.03412       -0.89248
H          3.15098        2.02608        0.87619
C          6.08814        2.47512       -0.00557
H          4.73260        4.04033        0.88914
H          4.73321        4.05164       -0.88089
C          7.61120        3.19322        0.00305
H          6.03683        1.83893       -0.89661
H          6.03402        1.82393        0.87439
C          9.02673        2.26212       -0.00590
H          7.65114        3.82774        0.89582
H          7.65245        3.84605       -0.87639
C         10.57648        2.97031        0.00863
H          8.97665        1.63225       -0.90134
H          8.97166        1.60790        0.87165
C         12.00215        2.02534       -0.01051
H         10.62341        3.59414        0.90861
H         10.62370        3.63056       -0.86496
C         13.57495        2.71242        0.01142
H         11.94751        1.40793       -0.91421
H         11.94200        1.36236        0.85988
C         14.99668        1.74335       -0.00764
H         13.63010        3.33080        0.91477
H         13.63599        3.37503       -0.85959
C         16.58889        2.40317        0.00826
H         14.93038        1.12342       -0.90872
H         14.92839        1.08620        0.86653
C         18.00413        1.41171       -0.01022
H         16.65711        3.02442        0.90872
H         16.65951        3.05970       -0.86653
C         19.60970        2.05669        0.01284
H         17.93224        0.79616       -0.91419
H         17.92458        0.75267        0.86150
C         21.03527        1.06410       -0.02132
H         19.68090        2.66274        0.92356
H         19.68179        2.72525       -0.85195
C         22.64852        1.72385        0.01829
H         20.96703        0.46737       -0.93891
H         20.95494        0.38717        0.83624
C         24.11279        0.75953       -0.03555
H         22.70616        2.30711        0.94522
H         22.70875        2.41293       -0.83001
C         25.73446        1.45868        0.00836
H         24.05300        0.17655       -0.96324
H         24.04913        0.06881        0.81205
C         27.25717        0.53878       -0.06291
H         25.77454        2.02788        0.94546
H         25.76879        2.16033       -0.83031
C         28.89488        1.27590       -0.03178
H         27.20352       -0.04080       -0.99313
H         27.21922       -0.15461        0.78403
C         30.47325        0.39497       -0.12051
H         28.92751        1.84007        0.90886
H         28.90207        1.98134       -0.86815
C         32.13139        1.15060       -0.12316
H         30.41687       -0.19137       -1.04588
H         30.46307       -0.29051        0.73380
C         33.74519        0.29096       -0.20736
H         32.16826        1.73681        0.80353
H         32.12374        1.83536       -0.97723
C         35.41406        1.05141       -0.25929
H         33.68600       -0.32705       -1.11125
H         33.75865       -0.36357        0.67110
C         37.03556        0.19928       -0.33290
H         35.46681        1.67309        0.64291
H         35.39877        1.70193       -1.14001
C         38.68968        0.96617       -0.41408
H         36.98255       -0.43979       -1.22274
H         37.06647       -0.43514        0.55933
C         40.28192        0.11328       -0.47325
H         38.75680        1.61097        0.47137
H         38.67815        1.59423       -1.31033
C         41.87657        0.89224       -0.57466
H         40.24076       -0.54583       -1.35094
H         40.33003       -0.50505        0.42777
C         43.37228        0.03166       -0.62310
H         41.96166        1.55251        0.30135
H         41.87232        1.51073       -1.47467
C         44.85319        0.80155       -0.71436
H         43.34383       -0.62796       -1.50678
H         43.42607       -0.60047        0.26365
C         46.17930       -0.10552       -0.77458
H         44.97305        1.44582        0.17575
H         44.87727        1.44618       -1.59142
C         47.57374        0.59697       -0.84880
H         46.13434       -0.75110       -1.66984
H         46.22314       -0.76485        0.09127
H         47.69796        1.23538       -1.72557
H         48.38141       -0.15533       -0.91019
H         47.80130        1.19156        0.04953
