602
	Energy:    1175.7230348
C         -6.45981        3.20460       -0.00836
C         -5.13408        3.95675        0.03207
H         -6.55534        2.61819       -0.92783
H         -7.29836        3.90924        0.02749
H         -6.55714        2.52575        0.84492
C         -3.92365        3.01212       -0.01390
H         -5.10078        4.56091        0.94620
H         -5.09799        4.65075       -0.81574
C         -2.58652        3.77777        0.02381
H         -3.97494        2.40676       -0.92696
H         -3.97562        2.32042        0.83556
C         -1.35900        2.84141       -0.01641
H         -2.55037        4.38723        0.93485
H         -2.54714        4.46790       -0.82761
C         -0.01267        3.60622        0.01586
H         -1.40802        2.23005       -0.92548
H         -1.40802        2.15493        0.83735
C          1.22697        2.67286       -0.01712
H          0.02236        4.22234        0.92234
H          0.02580        4.28994       -0.84064
C          2.58633        3.43018        0.00900
H          1.17748        2.05460       -0.92142
H          1.17753        1.99289        0.84172
C          3.83483        2.49447       -0.01877
H          2.62403        4.05263        0.91099
H          2.62651        4.10760       -0.85235
C          5.20817        3.24282        0.00199
H          3.78232        1.87084       -0.91904
H          3.78342        1.82019        0.84443
C          6.46806        2.30931       -0.03922
H          5.25323        3.86028        0.90696
H          5.24490        3.92421       -0.85619
C          7.85208        3.05618       -0.00812
H          6.41660        1.70102       -0.95017
H          6.41754        1.62019        0.81209
C          9.12483        2.12557       -0.03130
H          7.88742        3.67813        0.89416
H          7.89539        3.73322       -0.86940
C         10.52298        2.86493       -0.01757
H          9.07192        1.49626       -0.92742
H          9.07506        1.45749        0.83664
C         11.80358        1.92893       -0.04356
H         10.56827        3.49414        0.87923
H         10.56327        3.53448       -0.88486
C         13.21671        2.65821       -0.03141
H         11.74554        1.30114       -0.94038
H         11.75176        1.26044        0.82392
C         14.50918        1.72407       -0.07829
H         13.27041        3.27568        0.87290
H         13.25336        3.33764       -0.89095
C         15.93176        2.45547       -0.05235
H         14.45240        1.11804       -0.99025
H         14.45996        1.03478        0.77279
C         17.23991        1.52779       -0.08975
H         15.97536        3.07084        0.85391
H         15.97217        3.13675       -0.91022
C         18.67324        2.25904       -0.07807
H         17.18288        0.90655       -0.99107
H         17.19559        0.85382        0.77381
C         19.99304        1.33166       -0.12227
H         18.72395        2.87723        0.82590
H         18.70735        2.93701       -0.93884
C         21.43817        2.05957       -0.11250
H         19.93316        0.71411       -1.02597
H         19.95099        0.65494        0.73915
C         22.76981        1.13351       -0.16391
H         21.49188        2.67363        0.79403
H         21.47030        2.74033       -0.97105
C         24.22506        1.86133       -0.15649
H         22.70827        0.51916       -1.06966
H         22.73156        0.45438        0.69578
C         25.56900        0.93822       -0.21383
H         24.28058        2.47271        0.75171
H         24.25411        2.54381       -1.01373
C         27.03315        1.66728       -0.21106
H         25.50595        0.32521       -1.12034
H         25.53562        0.25852        0.64557
C         28.38860        0.74687       -0.27232
H         27.09059        2.27842        0.69715
H         27.05872        2.34919       -1.06883
C         29.86078        1.47727       -0.27679
H         28.32366        0.13263       -1.17782
H         28.36033        0.06902        0.58868
C         31.22642        0.55885       -0.33965
H         29.92052        2.09089        0.62956
H         29.88280        2.15601       -1.13713
C         32.70583        1.29024       -0.35363
H         31.15926       -0.05917       -1.24238
H         31.20315       -0.11475        0.52480
C         34.08003        0.37289       -0.41612
H         32.76834        1.90871        0.54922
H         32.72438        1.96360       -1.21824
C         35.56591        1.10452       -0.44092
H         34.01037       -0.25075       -1.31476
H         34.06127       -0.29468        0.45309
C         36.94677        0.18711       -0.50193
H         35.63168        1.72917        0.45741
H         35.58128        1.77120       -1.31074
C         38.43846        0.91786       -0.53761
H         36.87439       -0.44278       -1.39595
H         36.93171       -0.47377        0.37242
C         39.82393       -0.00084       -0.59705
H         38.50797        1.54875        0.35604
H         38.45121        1.57780       -1.41260
C         41.32086        0.72770       -0.64251
H         39.74860       -0.63640       -1.48679
H         39.81154       -0.65556        0.28194
C         42.70881       -0.19361       -0.70106
H         41.39450        1.36380        0.24710
H         41.33178        1.38189       -1.52183
C         44.21053        0.53133       -0.75444
H         42.63027       -0.83343       -1.58744
H         42.69799       -0.84355        0.18146
C         45.59894       -0.39384       -0.81311
H         44.28857        1.17108        0.13216
H         44.22060        1.18133       -1.63688
C         47.10507        0.32623       -0.87239
H         45.51690       -1.03628       -1.69728
H         45.58862       -1.04064        0.07170
C         48.49212       -0.60392       -0.93200
H         47.18761        0.96807        0.01229
H         47.11525        0.97358       -1.75677
C         50.00229        0.11023       -0.99545
H         48.40635       -1.24758       -1.81491
H         48.48136       -1.24897       -0.04594
C         51.38651       -0.82571       -1.05639
H         50.08930        0.75303       -0.11191
H         50.01347        0.75608       -1.88093
C         52.90032       -0.11817       -1.12277
H         51.29687       -1.46970       -1.93868
H         51.37456       -1.46992       -0.16974
C         54.28066       -1.06035       -1.18504
H         52.99165        0.52492       -0.23988
H         52.91315        0.52684       -2.00884
C         55.79768       -0.35971       -1.25345
H         54.18721       -1.70422       -2.06702
H         54.26700       -1.70420       -0.29816
C         57.17356       -1.30816       -1.31692
H         55.89306        0.28331       -0.37094
H         55.81255        0.28487       -2.13981
C         58.69330       -0.61426       -1.38659
H         57.07653       -1.95159       -2.19885
H         57.15784       -1.95200       -0.43008
C         60.06455       -1.56864       -1.45128
H         58.79236        0.02830       -0.50416
H         58.71034        0.03031       -2.27292
C         61.58652       -0.88093       -1.52136
H         59.96436       -2.21122       -2.33348
H         60.04662       -2.21291       -0.56480
C         62.95333       -1.84058       -1.58750
H         61.68874       -0.23936       -0.63858
H         61.60569       -0.23581       -2.40725
C         64.47705       -1.15825       -1.65716
H         62.85048       -2.48179       -2.47041
H         62.93322       -2.48587       -0.70180
C         65.83986       -2.12233       -1.72497
H         64.58181       -0.51817       -0.77361
H         64.49822       -0.51200       -2.54218
C         67.36488       -1.44445       -1.79375
H         65.73483       -2.76184       -2.60886
H         65.81781       -2.76902       -0.84033
C         68.72426       -2.41212       -1.86298
H         67.47156       -0.80592       -0.90930
H         67.38787       -0.79694       -2.67780
C         70.25019       -1.73783       -1.93122
H         68.61738       -3.05029       -2.74763
H         68.70068       -3.05991       -0.97918
C         71.60669       -2.70838       -2.00081
H         70.35826       -1.10001       -1.04642
H         70.27474       -1.08982       -2.81486
C         73.13319       -2.03699       -2.06982
H         71.49814       -3.34653       -2.88528
H         71.58214       -3.35601       -1.11692
C         74.48732       -3.00990       -2.13796
H         73.24237       -1.39814       -1.18591
H         73.15895       -1.39017       -2.95430
C         76.01406       -2.34088       -2.20967
H         74.37715       -3.65009       -3.02076
H         74.46234       -3.65536       -1.25249
C         77.36621       -3.31570       -2.27438
H         76.12429       -1.69885       -1.32819
H         76.04054       -1.69735       -3.09652
C         78.89281       -2.64853       -2.35058
H         77.25455       -3.96001       -3.15398
H         77.34129       -3.95695       -1.38584
C         80.24340       -3.62466       -2.41056
H         79.00414       -2.00162       -1.47282
H         78.91940       -2.00997       -3.24102
C         81.76934       -2.95852       -2.49219
H         80.13057       -4.27435       -3.28605
H         80.21894       -4.26047       -1.51811
C         83.11890       -3.93500       -2.54745
H         81.88168       -2.30622       -1.61856
H         81.79531       -2.32541       -3.38652
C         84.64347       -3.26860       -2.63408
H         83.00552       -4.58993       -3.41897
H         83.09528       -4.56560       -1.65127
C         85.99270       -4.24407       -2.68626
H         84.75652       -2.61194       -1.76382
H         84.66806       -2.63978       -3.53147
C         87.51512       -3.57573       -2.77606
H         85.87964       -4.90251       -3.55517
H         85.97029       -4.87138       -1.78771
C         88.86477       -4.54873       -2.82819
H         87.62828       -2.91721       -1.90722
H         87.53763       -2.94850       -3.67460
C         90.38435       -3.87675       -2.91831
H         88.75288       -5.20767       -3.69688
H         88.84387       -5.17596       -1.92954
C         91.73499       -4.84612       -2.97436
H         90.49704       -3.21988       -2.04817
H         90.40432       -3.24737       -3.81541
C         93.25148       -4.16949       -3.06113
H         91.62490       -5.50166       -3.84585
H         91.71561       -5.47738       -2.07849
C         94.60314       -5.13488       -3.12622
H         93.36349       -3.51886       -2.18622
H         93.26878       -3.53321       -3.95340
C         96.11706       -4.45380       -3.20392
H         94.49536       -5.78132       -4.00476
H         94.58440       -5.77585       -2.23725
C         97.46901       -5.41580       -3.28580
H         96.22873       -3.81668       -2.31907
H         96.13220       -3.80350       -4.08609
C         98.98174       -4.73209       -3.34490
H         97.36401       -6.04371       -4.17799
H         97.44867       -6.07546       -2.41063
C        100.33249       -5.69181       -3.45450
H         99.09356       -4.12001       -2.44256
H         98.99651       -4.05718       -4.20842
C        101.84598       -5.00913       -3.48212
H        100.23071       -6.28744       -4.36893
H        100.30728       -6.38219       -2.60352
C        103.19369       -5.96709       -3.63061
H        101.95764       -4.43643       -2.55426
H        101.86379       -4.29787       -4.31592
C        104.70957       -5.29064       -3.61537
H        103.09528       -6.51619       -4.57410
H        103.16061       -6.69877       -2.81520
C        106.05264       -6.24634       -3.80778
H        104.81939       -4.76829       -2.65804
H        104.73484       -4.53635       -4.41027
C        107.57107       -5.58070       -3.74657
H        105.95740       -6.74215       -4.78068
H        106.01055       -7.02163       -3.03421
C        108.90851       -6.53350       -3.97746
H        107.67686       -5.10898       -2.76286
H        107.60721       -4.78661       -4.50128
C        110.42740       -5.87934       -3.87733
H        108.81622       -6.98207       -4.97334
H        108.85866       -7.34462       -3.24206
C        111.75859       -6.82900       -4.13358
H        110.52793       -5.44705       -2.87513
H        110.47483       -5.05641       -4.59984
C        113.27339       -6.18167       -4.00705
H        111.66955       -7.24593       -5.14343
H        111.70419       -7.66310       -3.42465
C        114.59788       -7.12739       -4.27368
H        113.36856       -5.77195       -2.99488
H        113.32946       -5.34274       -4.71029
C        116.10214       -6.47805       -4.13370
H        114.51287       -7.53081       -5.28938
H        114.54347       -7.97185       -3.57705
C        117.41998       -7.41798       -4.39707
H        116.19180       -6.07373       -3.11884
H        116.16214       -5.63461       -4.83118
C        118.90735       -6.75606       -4.25533
H        117.33977       -7.82467       -5.41189
H        117.37039       -8.26189       -3.69932
C        120.22072       -7.68814       -4.50359
H        118.99023       -6.34142       -3.24405
H        118.96535       -5.91812       -4.95959
C        121.68937       -7.00485       -4.37062
H        120.14497       -8.11225       -5.51165
H        120.17884       -8.52176       -3.79298
C        123.00544       -7.92856       -4.59412
H        121.76230       -6.56685       -3.36842
H        121.73861       -6.18138       -5.09237
C        124.46537       -7.22254       -4.48003
H        122.93069       -8.38056       -5.59018
H        122.96927       -8.74289       -3.86128
C        125.80026       -8.14260       -4.67256
H        124.52412       -6.75159       -3.49176
H        124.49973       -6.42183       -5.22762
C        127.28380       -7.42616       -4.58799
H        125.71710       -8.62878       -5.65144
H        125.76115       -8.92837       -3.90928
C        128.67656       -8.35309       -4.75707
H        127.32941       -6.92042       -3.61710
H        127.29901       -6.65362       -5.36649
C        130.24698       -7.63262       -4.71393
H        128.57140       -8.87389       -5.71293
H        128.62903       -9.10186       -3.95416
C        131.78575       -8.52246       -4.89371
H        130.28883       -7.11411       -3.75289
H        130.22636       -6.88094       -5.51547
C        133.44016       -7.74006       -4.91882
H        131.67398       -9.08507       -5.82523
H        131.77944       -9.23673       -4.05576
H        179.70384      -12.11294       -4.91986
H        182.58367      -12.29473       -5.01034
H        176.83339      -11.93385       -4.83919
H        185.47012      -12.48272       -5.11083
H        173.97527      -11.75393       -4.76750
H        188.36075      -12.67981       -5.22056
H        191.25350      -12.88814       -5.33822
H        171.13245      -11.57016       -4.70361
H        194.14669      -13.10910       -5.46205
H        168.30774      -11.38066       -4.64670
H        197.03912      -13.34337       -5.59045
H        199.92996      -13.59115       -5.72234
H        165.50357      -11.18492       -4.59650
H        202.81874      -13.85208       -5.85708
H        205.70535      -14.12503       -5.99408
H        208.58993      -14.40819       -6.13262
H        211.47281      -14.69907       -6.27146
H        162.72199      -10.98371       -4.55314
H        214.35427      -14.99517       -6.40920
H        217.23447      -15.29453       -6.54478
H        220.11342      -15.59612       -6.67813
H        222.99107      -15.89963       -6.81038
H        225.86741      -16.20477       -6.94355
H        228.74243      -16.51055       -7.07999
H        231.61601      -16.81513       -7.22182
H        159.96449      -10.77909       -4.51712
H        234.48775      -17.11655       -7.37077
H        237.35653      -17.41502       -7.52954
H        157.23204      -10.57374       -4.48863
H        240.22080      -17.71461       -7.70290
H        154.52497      -10.37099       -4.46784
H        243.07941      -18.02135       -7.89579
H        151.84250      -10.17426       -4.45447
H        245.93274      -18.33793       -8.10748
H        273.64176      -20.90780       -9.26988
H        149.18136       -9.98635       -4.44799
H        271.06186      -20.72669       -9.23517
H        248.78267      -18.66078       -8.32647
H        268.41602      -20.56310       -9.20035
H        251.63077      -18.98379       -8.53436
H        146.53249       -9.80796       -4.44733
H        265.70411      -20.38099       -9.15351
H        175.54045       -9.73047       -4.74306
H        178.40380       -9.91000       -4.83487
H        172.69265       -9.54829       -4.66271
H        262.94085      -20.16049       -9.08531
H        181.28009      -10.09043       -4.93622
H        254.47625      -19.30227       -8.71696
H        169.86270       -9.36075       -4.59514
H        184.16663      -10.27537       -5.04518
H        260.14026      -19.90090       -8.99163
H        257.31519      -19.61098       -8.86933
H        187.06070      -10.46809       -5.16011
H        143.87462       -9.63543       -4.45012
H        167.05259       -9.16654       -4.54056
H        189.95975      -10.67111       -5.27997
H        192.86144      -10.88614       -5.40420
H        164.26391       -8.96570       -4.49831
H        195.76377      -11.11426       -5.53216
H        141.16358       -9.46001       -4.44798
H        198.66518      -11.35585       -5.66324
C        179.71890      -11.45205       -5.79421
C        182.59606      -11.64001       -5.88932
C        176.85215      -11.26628       -5.70840
H        201.56447      -11.61086       -5.79645
C        185.48094      -11.83278       -5.99335
C        173.99854      -11.08032       -5.63195
H        258.96296      -17.71276       -8.41113
H        161.49772       -8.75981       -4.46668
H        204.46086      -11.87853       -5.93084
H        256.14052      -17.41110       -8.28716
H        261.75759      -17.98000       -8.53630
C        188.37107      -12.03301       -6.10538
H        207.35394      -12.15734       -6.06587
C        171.16072      -10.89230       -5.56461
H        253.30004      -17.08622       -8.16742
H        210.24368      -12.44508       -6.20158
H        264.51491      -18.20372       -8.66039
C        191.26425      -12.24309       -6.22428
H        213.13039      -12.73917       -6.33870
H        138.31220       -9.29006       -4.41774
H        216.01451      -13.03730       -6.47818
H        250.44898      -16.74815       -8.05514
C        194.15864      -12.46488       -6.34869
C        168.34110      -10.70097       -5.50611
H        218.89643      -13.33803       -6.62046
H        267.22846      -18.38207       -8.78228
C        197.05279      -12.69952       -6.47732
H        158.75473       -8.55137       -4.44359
H        221.77627      -13.64079       -6.76513
H        247.59150      -16.40744       -7.95033
H        224.65381      -13.94538       -6.91087
C        199.94568      -12.94733       -6.60919
C        165.54178      -10.50582       -5.45621
H        227.52865      -14.25111       -7.05610
H        269.89699      -18.52780       -8.90068
C        202.83667      -13.20780       -6.74356
H        275.13907      -18.90088       -9.08190
H        230.40042      -14.55638       -7.19950
H        244.72977      -16.07559       -7.84655
C        205.72546      -13.47974       -6.87978
H        233.26918      -14.85905       -7.34044
H        272.52270      -18.67818       -9.00429
H        236.13563      -15.15802       -7.47850
H        241.86569      -15.75917       -7.73484
C        208.61198      -13.76149       -7.01726
C        162.76449      -10.30708       -5.41462
H        239.00086      -15.45583       -7.61137
H        156.03508       -8.34347       -4.42681
C        211.49639      -14.05128       -7.15526
C        214.37883      -14.34754       -7.29309
C        217.25945      -14.64906       -7.43024
C        220.13834      -14.95488       -7.56667
C        223.01553      -15.26384       -7.70285
C        225.89103      -15.57417       -7.83974
C        228.76484      -15.88325       -7.97854
C        160.01048      -10.10580       -5.38108
C        231.63691      -16.18790       -8.12047
C        234.50713      -16.48529       -8.26664
C        178.33803      -10.53465       -5.73320
C        175.47796      -10.34893       -5.64591
H        153.33828       -8.13968       -4.41408
C        181.21059      -10.72131       -5.82988
C        172.63290      -10.16190       -5.56907
C        184.09299      -10.91147       -5.93478
C        237.37528      -16.77404       -8.41851
C        186.98267      -11.10784       -6.04671
C        169.80525       -9.97189       -5.50334
C        157.28054       -9.90373       -5.35504
C        189.87721      -11.31294       -6.16466
C        240.24115      -17.05496       -8.57807
C        166.99708       -9.77791       -5.44876
C        192.77442      -11.52894       -6.28775
H        150.66257       -7.94352       -4.40340
C        195.67244      -11.75734       -6.41506
C        243.10462      -17.33097       -8.74678
C        154.57478       -9.70319       -5.33593
C        198.56980      -11.99888       -6.54574
C        164.21012       -9.57975       -5.40484
C        201.46542      -12.25343       -6.67888
C        204.35865      -12.52009       -6.81363
H        148.00313       -7.75782       -4.39307
C        245.96581      -17.60625       -8.92290
C        207.24918      -12.79741       -6.94943
C        210.13701      -13.08362       -7.08603
C        161.44564       -9.37806       -5.37049
C        273.66258      -20.16752      -10.07819
C        151.89205       -9.50682       -5.32290
C        213.02232      -13.37699       -7.22350
C        215.90533      -13.67615       -7.36210
C        218.78619      -13.98005       -7.50195
C        248.82476      -17.88550       -9.10005
C        221.66494      -14.28771       -7.64289
C        271.07807      -19.96394      -10.02288
H        145.34795       -7.58310       -4.38183
C        224.54147      -14.59770       -7.78449
C        227.41560      -14.90777       -7.92636
C        158.70446       -9.17424       -5.34436
C        230.28725      -15.21490       -8.06834
C        268.43219      -19.77260       -9.95999
C        251.68061      -18.17266       -9.26976
C        233.15649      -15.51592       -8.21059
C        149.22839       -9.31689       -5.31504
C        265.73008      -19.56497       -9.88520
C        236.02362      -15.80865       -8.35341
C        262.97919      -19.32623       -9.79543
C        254.53061      -18.46815       -9.42587
H        142.66995       -7.41376       -4.36722
C        238.88919      -16.09296       -8.49621
C        260.18886      -19.05677       -9.68922
C        257.36937      -18.76646       -9.56593
C        241.75387      -16.37125       -8.63718
C        155.98687       -8.97036       -5.32494
C        244.61811      -16.64829       -8.77440
C        247.48169      -16.92980       -8.90766
C        146.57363       -9.13397       -5.31106
C        275.00997      -19.44294      -10.02428
C        250.34319      -17.21986       -9.03886
H        139.90209       -7.23679       -4.33219
C        253.19948      -17.51851       -9.16962
C        258.87279      -18.11713       -9.42593
C        256.04525      -17.82082       -9.29933
C        261.67269      -18.39478       -9.54740
C        264.43556      -18.64207       -9.66202
C        267.15412      -18.85391       -9.76906
C        272.44588      -19.22097       -9.95395
C        269.82455      -19.03846       -9.86818
C        153.29229       -8.76901       -5.31067
C        143.90491       -8.95477       -5.30826
H        136.83917       -7.12875       -4.18901
H        275.83452      -20.16317      -10.10356
C        150.61843       -8.57300       -5.30002
C        141.17487       -8.77004       -5.29643
C        147.95902       -8.38468       -5.29160
C        138.28425       -8.58279       -5.24577
C        145.29936       -8.20454       -5.28423
C        135.11007       -8.46694       -5.19426
H        182.52072      -12.27556       -6.77906
H        179.64652      -12.08193       -6.68824
H        185.40239      -12.47259       -6.87974
H        176.78249      -11.88991       -6.60704
H        188.28904      -12.67545       -6.98954
C        142.60761       -8.02805       -5.27486
H        173.93138      -11.69833       -6.53468
H        191.17847      -12.88674       -7.10720
H        171.09579      -11.50653       -6.47011
H        194.06900      -13.10886       -7.23098
H        196.95933      -13.34340       -7.35931
H        168.27806      -11.31398       -6.41261
H        199.84865      -13.59078       -7.49111
C        139.81322       -7.84443       -5.24553
H        202.73649      -13.85038       -7.62576
H        165.48031      -11.12015       -6.36197
H        205.62261      -14.12094       -7.76268
H        208.50695      -14.40099       -7.90115
H        211.38951      -14.68945       -8.03991
C        136.76065       -7.69322       -5.13625
H        214.27028      -14.98568       -8.17756
H        162.70426      -10.92469       -6.31827
H        225.77766      -16.22910       -8.71125
H        217.14928      -15.28924       -8.31304
H        222.90270      -15.91355       -8.57833
H        220.02667      -15.59919       -8.44627
H        228.65177      -16.54169       -8.84745
H        231.52502      -16.84685       -8.98915
H        234.39704      -17.14082       -9.13813
H        159.95137      -10.72761       -6.28197
H        237.26749      -17.42047       -9.29705
H        157.22262      -10.52964       -6.25322
H        240.13614      -17.68288       -9.47026
H        154.51846      -10.33210       -6.23216
H        243.00283      -17.92660       -9.66120
H        151.83824      -10.13688       -6.21855
H        245.86741      -18.15536       -9.86638
H        273.61080      -20.72073      -11.02317
H        149.17879       -9.94570       -6.21187
H        271.02303      -20.49111      -10.98286
H        248.72951      -18.38134      -10.07294
H        146.53105       -9.75895       -6.21106
H        268.37403      -20.26336      -10.93874
H        175.49650       -9.67556       -6.51052
H        178.35340       -9.86796       -6.60302
H        181.22334      -10.06135       -6.70486
H        172.65492       -9.48315       -6.42940
H        184.10391      -10.25727       -6.81410
H        251.58833      -18.62123      -10.26563
H        169.83082       -9.29000       -6.36113
H        265.66558      -20.01899      -10.88103
H        186.99273      -10.45784       -6.92915
H        143.87253       -9.57333       -6.21390
H        189.88738      -10.66559       -7.04904
H        167.02613       -9.09541       -6.30599
H        262.90698      -19.75115      -10.80343
H        254.44161      -18.88508      -10.43573
H        192.78560      -10.88310       -7.17323
H        260.10963      -19.46372      -10.70402
H        257.28459      -19.16996      -10.58162
H        195.68529      -11.11232       -7.30112
H        164.24239       -8.89897       -6.26338
H        198.58467      -11.35431       -7.43211
H        141.15078       -9.37646       -6.21315
H        201.48245      -11.60888       -7.56522
H        204.37782      -11.87496       -7.69950
H        161.48074       -8.70046       -6.23148
H        207.27035      -12.15115       -7.83444
H        210.16000      -12.43611       -7.97008
H        213.04687      -12.72898       -8.10714
H        215.93109      -13.02932       -8.24657
H        218.81267      -13.33652       -8.38879
H        138.25561       -9.15469       -6.18882
H        221.69152      -13.64917       -8.53333
H        224.56744      -13.96460       -8.67883
H        158.74187       -8.50031       -6.20819
H        258.93329      -17.27367      -10.12336
H        256.10142      -16.98189      -10.00255
H        261.73270      -17.55678      -10.25149
H        227.44019      -14.27895       -8.82375
H        253.24693      -16.69558       -9.89213
H        230.30976      -14.58768       -8.96689
H        264.49117      -17.81844      -10.38332
H        233.17645      -14.88653       -9.10768
H        250.37932      -16.42577       -9.79357
H        236.04091      -15.17237       -9.24569
H        267.20432      -18.05286      -10.51589
H        247.50696      -16.17552       -9.70257
H        238.90434      -15.44266       -9.37838
H        244.63591      -15.93704       -9.60821
H        241.76863      -15.69634       -9.50070
H        156.02601       -8.29959       -6.19122
H        275.11769      -18.73142      -10.84939
H        269.87271      -18.26667      -10.64553
H        272.49971      -18.47623      -10.75711
H        153.33268       -8.10000       -6.17831
H        150.66012       -7.90376       -6.16748
H        148.00342       -7.71290       -6.15697
H        145.34989       -7.52848       -6.14561
H        142.66827       -7.34898       -6.13179
H        139.87801       -7.16928       -6.10213
H        136.81041       -6.98170       -5.96126
H        133.50359       -7.23971       -3.94449
H        133.33559       -6.99697       -5.71126
H        135.18931       -9.33217       -4.54423
H        135.06698       -8.79909       -6.24743
