302
	Energy:     506.1816145
C         -6.50346        3.20667       -0.00780
C         -5.17780        3.95900        0.03114
H         -6.59895        2.62042       -0.92822
H         -7.34210        3.91117        0.02768
H         -6.60072        2.52767        0.84453
C         -3.96713        3.01459       -0.01239
H         -5.14461        4.56314        0.94700
H         -5.14189        4.65302       -0.81496
C         -2.63001        3.78036        0.02210
H         -4.01838        2.40915       -0.92773
H         -4.01900        2.32299        0.83485
C         -1.40219        2.84417       -0.01449
H         -2.59395        4.39007        0.93574
H         -2.59076        4.47031       -0.82677
C         -0.05602        3.60926        0.01390
H         -1.45120        2.23252       -0.92630
H         -1.45105        2.15801        0.83665
C          1.18468        2.67701       -0.01559
H         -0.02118        4.22574        0.92304
H         -0.01795        4.29276       -0.83997
C          2.54280        3.43697        0.00676
H          1.13565        2.05811       -0.92215
H          1.13631        1.99750        0.84108
C          3.79420        2.50519       -0.01737
H          2.57893        4.05993        0.91076
H          2.58124        4.11394       -0.85269
C          5.16593        3.25765       -0.00013
H          3.74363        1.88011       -0.91879
H          3.74501        1.83185        0.84472
C          6.42725        2.32483       -0.02155
H          5.20489        3.88536        0.89961
H          5.20523        3.92954       -0.86417
C          7.81307        3.06940       -0.00797
H          6.37450        1.69583       -0.91928
H          6.37702        1.65580        0.84449
C          9.08459        2.13551       -0.02956
H          7.85534        3.69936        0.88931
H          7.85300        3.73853       -0.87471
C         10.48422        2.87318       -0.01809
H          9.02971        1.50525       -0.92566
H          9.03386        1.46837        0.83839
C         11.76674        1.93900       -0.04258
H         10.52960        3.50278        0.87878
H         10.52413        3.54200       -0.88545
C         13.17950        2.67143       -0.03193
H         11.71010        1.30994       -0.93900
H         11.71645        1.27141        0.82534
C         14.47395        1.73802       -0.06158
H         13.22753        3.29845        0.86632
H         13.21861        3.34205       -0.89812
C         15.89900        2.46704       -0.05097
H         14.41594        1.11205       -0.95983
H         14.42517        1.06815        0.80479
C         17.20609        1.53540       -0.08742
H         15.94921        3.08994        0.84986
H         15.93652        3.14087       -0.91479
C         18.64258        2.26268       -0.07675
H         17.14697        0.91361       -0.98836
H         17.15988        0.86221        0.77655
C         19.96268        1.33360       -0.12078
H         18.69463        2.88085        0.82713
H         18.67782        2.94026       -0.93773
C         21.40976        2.06053       -0.11081
H         19.90250        0.71612       -1.02453
H         19.92000        0.65697        0.74067
C         22.74282        1.13444       -0.16217
H         21.46349        2.67440        0.79585
H         21.44215        2.74136       -0.96928
C         24.19963        1.86202       -0.15450
H         22.68141        0.52030       -1.06807
H         22.70448        0.45529        0.69748
C         25.54516        0.93897       -0.21192
H         24.25508        2.47315        0.75386
H         24.22878        2.54461       -1.01165
C         27.01085        1.66782       -0.20891
H         25.48222        0.32622       -1.11861
H         25.51172        0.25918        0.64739
C         28.36793        0.74747       -0.27030
H         27.06823        2.27866        0.69950
H         27.03650        2.34985       -1.06657
C         29.84164        1.47774       -0.27458
H         28.30309        0.13349       -1.17598
H         28.33966        0.06952        0.59062
C         31.20893        0.55944       -0.33758
H         29.90130        2.09110        0.63196
H         29.86367        2.15659       -1.13483
C         32.68981        1.29082       -0.35145
H         31.14188       -0.05838       -1.24045
H         31.18574       -0.11421        0.52684
C         34.06567        0.37363       -0.41404
H         32.75223        1.90909        0.55153
H         32.70833        1.96421       -1.21604
C         35.55293        1.10533       -0.43887
H         33.99613       -0.24989       -1.31277
H         34.04705       -0.29390        0.45519
C         36.93541        0.18813       -0.49993
H         35.61862        1.72989        0.45952
H         35.56822        1.77196       -1.30873
C         38.42835        0.91902       -0.53575
H         36.86316       -0.44174       -1.39397
H         36.92055       -0.47263        0.37451
C         39.81535        0.00055       -0.59520
H         38.49780        1.54991        0.35791
H         38.44099        1.57883       -1.41084
C         41.31340        0.72927       -0.64087
H         39.74014       -0.63506       -1.48491
H         39.80319       -0.65399        0.28391
C         42.70274       -0.19182       -0.69944
H         41.38700        1.36542        0.24870
H         41.32418        1.38328       -1.52032
C         44.20544        0.53331       -0.75305
H         42.62431       -0.83171       -1.58577
H         42.69215       -0.84157        0.18323
C         45.59504       -0.39168       -0.81175
H         44.28346        1.17311        0.13352
H         44.21535        1.18313       -1.63561
C         47.10201        0.32854       -0.87124
H         45.51311       -1.03417       -1.69588
H         45.58494       -1.03832        0.07318
C         48.49003       -0.60147       -0.93091
H         47.18456        0.97041        0.01341
H         47.11207        0.97576       -1.75572
C         50.00089        0.11276       -0.99455
H         48.40433       -1.24515       -1.81382
H         48.47946       -1.24642       -0.04478
C         51.38586       -0.82311       -1.05557
H         50.08796        0.75556       -0.11101
H         50.01199        0.75853       -1.88009
C         52.90023       -0.11557       -1.12209
H         51.29626       -1.46710       -1.93786
H         51.37406       -1.46726       -0.16888
C         54.28109       -1.05776       -1.18445
H         52.99164        0.52752       -0.23921
H         52.91303        0.52939       -2.00820
C         55.79853       -0.35719       -1.25298
H         54.18762       -1.70162       -2.06643
H         54.26752       -1.70157       -0.29754
C         57.17470       -1.30573       -1.31651
H         55.89402        0.28583       -0.37048
H         55.81341        0.28734       -2.13938
C         58.69475       -0.61197       -1.38630
H         57.07762       -1.94917       -2.19843
H         57.15903       -1.94953       -0.42963
C         60.06610       -1.56650       -1.45101
H         58.79393        0.03061       -0.50389
H         58.71183        0.03253       -2.27267
C         61.58827       -0.87899       -1.52120
H         59.96583       -2.20911       -2.33318
H         60.04817       -2.21073       -0.56449
C         62.95503       -1.83881       -1.58734
H         61.69063       -0.23738       -0.63845
H         61.60751       -0.23392       -2.40712
C         64.47887       -1.15668       -1.65707
H         62.85210       -2.48004       -2.47023
H         62.93489       -2.48407       -0.70162
C         65.84155       -2.12094       -1.72491
H         64.58376       -0.51660       -0.77353
H         64.50011       -0.51045       -2.54210
C         67.36662       -1.44324       -1.79368
H         65.73644       -2.76042       -2.60881
H         65.81943       -2.76765       -0.84029
C         68.72584       -2.41104       -1.86301
H         67.47340       -0.80476       -0.90920
H         67.38967       -0.79567       -2.67769
C         70.25179       -1.73688       -1.93115
H         68.61891       -3.04911       -2.74773
H         68.70219       -3.05893       -0.97928
C         71.60818       -2.70752       -2.00089
H         70.35992       -1.09920       -1.04627
H         70.27639       -1.08874       -2.81469
C         73.13470       -2.03621       -2.06975
H         71.49959       -3.34550       -2.88548
H         71.58355       -3.35531       -1.11712
C         74.48877       -3.00919       -2.13805
H         73.24389       -1.39753       -1.18572
H         73.16050       -1.38923       -2.95411
C         76.01560       -2.34026       -2.20961
H         74.37857       -3.64921       -3.02096
H         74.46373       -3.65481       -1.25269
C         77.36775       -3.31518       -2.27442
H         76.12582       -1.69837       -1.32803
H         76.04212       -1.69661       -3.09637
C         78.89454       -2.64816       -2.35055
H         77.25602       -3.95938       -3.15410
H         77.34275       -3.95651       -1.38595
C         80.24515       -3.62448       -2.41051
H         79.00588       -2.00131       -1.47275
H         78.92120       -2.00958       -3.24096
C         81.77139       -2.95861       -2.49216
H         80.13222       -4.27416       -3.28600
H         80.22059       -4.26025       -1.51804
C         83.12097       -3.93537       -2.54728
H         81.88380       -2.30624       -1.61859
H         81.79749       -2.32561       -3.38657
C         84.64590       -3.26935       -2.63403
H         83.00745       -4.59041       -3.41869
H         83.09722       -4.56580       -1.65098
C         85.99512       -4.24515       -2.68594
H         84.75907       -2.61251       -1.76392
H         84.67065       -2.64077       -3.53158
C         87.51785       -3.57718       -2.77593
H         85.88193       -4.90380       -3.55467
H         85.97258       -4.87218       -1.78721
C         88.86746       -4.55045       -2.82772
H         87.63115       -2.91842       -1.90730
H         87.54053       -2.95026       -3.67468
C         90.38718       -3.87870       -2.91809
H         88.75551       -5.20968       -3.69618
H         88.84650       -5.17736       -1.92885
C         91.73774       -4.84816       -2.97371
H         90.49995       -3.22150       -2.04821
H         90.40727       -3.24969       -3.81543
C         93.25408       -4.17149       -3.06087
H         91.62767       -5.50413       -3.84488
H         91.71845       -5.47899       -2.07754
C         94.60564       -5.13671       -3.12536
H         93.36607       -3.52032       -2.18636
H         93.27137       -3.53574       -3.95352
C         96.11907       -4.45529       -3.20378
H         94.49792       -5.78389       -4.00337
H         94.58718       -5.77701       -2.23589
C         97.47093       -5.41692       -3.28484
H         96.23067       -3.81730       -2.31955
H         96.13400       -3.80579       -4.08654
C         98.98295       -4.73260       -3.34499
H         97.36599       -6.04591       -4.17629
H         97.45102       -6.07562       -2.40894
C        100.33369       -5.69186       -3.45380
H         99.09471       -4.11945       -2.44338
H         98.99725       -4.05864       -4.20925
C        101.84659       -5.00848       -3.48243
H        100.23193       -6.28856       -4.36753
H        100.30891       -6.38133       -2.60206
C        103.19454       -5.96602       -3.63066
H        101.95821       -4.43499       -2.55506
H        101.86371       -4.29784       -4.31678
C        104.71045       -5.28908       -3.61583
H        103.09607       -6.51552       -4.57391
H        103.16164       -6.69736       -2.81494
C        106.05434       -6.24454       -3.80883
H        104.82017       -4.76680       -2.65845
H        104.73501       -4.53470       -4.41067
C        107.57405       -5.57904       -3.74726
H        105.95884       -6.73966       -4.78205
H        106.01200       -7.02024       -3.03569
C        108.91335       -6.53197       -3.97935
H        107.67957       -5.10831       -2.76304
H        107.60970       -4.78428       -4.50128
C        110.43536       -5.87888       -3.87849
H        108.82053       -6.97904       -4.97584
H        108.86277       -7.34386       -3.24485
C        111.76993       -6.82920       -4.13608
H        110.53550       -5.44804       -2.87562
H        110.48262       -5.05515       -4.60009
C        113.28996       -6.18383       -4.00889
H        111.68012       -7.24435       -5.14658
H        111.71440       -7.66398       -3.42807
C        114.61944       -7.13053       -4.27674
H        113.38476       -5.77567       -2.99607
H        113.34614       -5.34426       -4.71133
C        116.13032       -6.48375       -4.13628
H        114.53376       -7.53226       -5.29304
H        114.56389       -7.97552       -3.58086
C        117.45363       -7.42428       -4.40059
H        116.22003       -6.08093       -3.12084
H        116.19091       -5.63981       -4.83309
C        118.94607       -6.76486       -4.25847
H        117.37371       -7.82965       -5.41597
H        117.40388       -8.26876       -3.70354
C        120.26102       -7.69639       -4.50716
H        119.03053       -6.35147       -3.24680
H        119.00614       -5.92653       -4.96209
C        121.72575       -7.01423       -4.37353
H        120.18867       -8.12007       -5.51568
H        120.22218       -8.53092       -3.79744
C        123.02888       -7.93593       -4.59692
H        121.80468       -6.57695       -3.37140
H        121.78132       -6.19035       -5.09446
C        124.45970       -7.22582       -4.48063
H        122.96505       -8.38914       -5.59321
H        123.00335       -8.75219       -3.86559
C        125.74550       -8.14213       -4.67127
H        124.53358       -6.75464       -3.49344
H        124.50973       -6.42462       -5.22714
C        127.14237       -7.40781       -4.57987
H        125.68864       -8.63284       -5.65024
H        125.73081       -8.93256       -3.91172
C        128.40175       -8.33073       -4.73345
H        127.21447       -6.89678       -3.61241
H        127.19042       -6.63650       -5.35748
C        129.77211       -7.58737       -4.66537
H        128.34839       -8.85873       -5.69322
H        128.38726       -9.09288       -3.94534
C        130.99174       -8.53277       -4.78784
H        129.84911       -7.04348       -3.71621
H        129.82654       -6.84374       -5.46930
C        132.34058       -7.80911       -4.73441
H        130.94140       -9.08718       -5.73233
H        130.97164       -9.27223       -3.97889
H        132.45104       -7.10004       -5.56123
H        133.16466       -8.53054       -4.81102
H        132.47041       -7.26505       -3.79320
